184
Lattice="6.069324174 0.0 0.0 0.0 18.8181763051 0.0 -1.46304093876 0.0 16.2172038463" Properties=species:S:1:pos:R:3:cs_tensor:R:9:cs_iso:R:1:center_atoms_mask:L:1 magres_units="_JSON {\"cs_tensor\": \"ppm\", \"cs_iso\": \"ppm\"}" NAME=ACRDIN07 ENERGY=-2228.62876169 pbc="T T T"
N        0.21257201       8.02287575      15.62631265     -49.88520000     -69.53080000    -124.99080000     -72.27340000    -286.51810000     227.77290000    -146.19240000     230.27660000      52.76450000     -94.55000000  F
N        3.66218772      17.43196087       8.69949008     -49.88520000      69.53080000    -124.99080000      72.27340000    -286.51810000    -227.77290000    -146.19240000    -230.27660000      52.76450000     -94.55000000  F
N        4.39371123      10.79530055       0.59089119     -49.88520000     -69.53080000    -124.99080000     -72.27340000    -286.51810000     227.77290000    -146.19240000     230.27660000      52.76450000     -94.55000000  F
N        0.94409551       1.38620936       7.51771376     -49.88520000      69.53080000    -124.99080000      72.27340000    -286.51810000    -227.77290000    -146.19240000    -230.27660000      52.76450000     -94.55000000  F
C        4.35558373       8.68454741      14.25015409      -1.51580000     -27.16910000     -87.03140000     -32.60290000      14.84220000      68.49600000     -79.80680000      65.08330000     113.14350000      42.16000000  T
C       -0.48082400      18.09363252      10.07565471      -1.51580000      27.16910000     -87.03140000      32.60290000      14.84220000     -68.49600000     -79.80680000     -65.08330000     113.14350000      42.16000000  T
C        0.25069950      10.13362890       1.96704976      -1.51580000     -27.16910000     -87.03140000     -32.60290000      14.84220000      68.49600000     -79.80680000      65.08330000     113.14350000      42.16000000  T
C        5.08710723       0.72453771       6.14154913      -1.51580000      27.16910000     -87.03140000      32.60290000      14.84220000     -68.49600000     -79.80680000     -65.08330000     113.14350000      42.16000000  T
C        4.35387218       6.52894196      15.34406480      -2.23550000     -58.35970000     -68.88040000     -46.49500000      12.75130000      67.39980000     -72.99610000      64.19320000     112.46420000      40.99000000  T
C       -0.47910638      15.93802707       8.98173793      -2.23550000      58.35970000     -68.88040000      46.49500000      12.75130000     -67.39980000     -72.99610000     -64.19320000     112.46420000      40.99000000  T
C        0.25241712      12.28923435       0.87313904      -2.23550000     -58.35970000     -68.88040000     -46.49500000      12.75130000      67.39980000     -72.99610000      64.19320000     112.46420000      40.99000000  T
C        5.08538962       2.88014923       7.23546591      -2.23550000      58.35970000     -68.88040000      46.49500000      12.75130000     -67.39980000     -72.99610000     -64.19320000     112.46420000      40.99000000  T
C       -0.41332705       8.92528715      14.84292070      -2.48610000     -29.90890000     -70.54300000     -47.66330000     -26.71480000      60.62960000     -75.10050000      68.83780000      81.93380000      17.58000000  T
C        4.28809285      18.33437227       9.48288203      -2.48610000      29.90890000     -70.54300000      47.66330000     -26.71470000     -60.62960000     -75.10050000     -68.83780000      81.93380000      17.58000000  T
C        5.01961028       9.89288916       1.37428314      -2.48610000     -29.90890000     -70.54300000     -47.66330000     -26.71470000      60.62960000     -75.10050000      68.83780000      81.93380000      17.58000000  T
C        0.31819646       0.48380404       6.73432182      -2.48610000      29.90890000     -70.54300000      47.66330000     -26.71480000     -60.62960000     -75.10050000     -68.83780000      81.93380000      17.58000000  T
C        3.72508413       7.46539619      14.51823614     -25.28720000     -36.95570000     -71.93230000     -33.79080000      21.79660000      46.95230000     -67.01990000      41.02360000      91.78200000      29.43000000  T
C        0.14968167      16.87448738       9.80757267     -25.28720000      36.95570000     -71.93230000      33.79080000      21.79660000     -46.95230000     -67.01990000     -41.02360000      91.78200000      29.43000000  T
C        0.88119911      11.35278012       1.69896771     -25.28720000     -36.95570000     -71.93230000     -33.79080000      21.79660000      46.95230000     -67.01990000      41.02360000      91.78200000      29.43000000  T
C        4.45660156       1.94368893       6.40963118     -25.28720000      36.95570000     -71.93230000      33.79080000      21.79660000     -46.95230000     -67.01990000     -41.02360000      91.78200000      29.43000000  T
H        2.73398170       7.25645364      14.10838682      24.02690000      -0.49220000       5.77180000      -0.11700000      25.32470000       1.39520000       0.09620000      -1.81440000      28.56770000      25.97000000  F
H        1.14078410      16.66553875      10.21741592      24.02690000       0.49220000       5.77180000       0.11700000      25.32470000      -1.39520000       0.09620000       1.81440000      28.56770000      25.97000000  F
H        1.87230154      11.56172267       2.10881703      24.02690000      -0.49220000       5.77180000      -0.11700000      25.32470000       1.39520000       0.09620000      -1.81440000      28.56770000      25.97000000  F
H        3.46549913       2.15263755       5.99978793      24.02690000       0.49220000       5.77180000       0.11700000      25.32470000      -1.39520000       0.09620000       1.81440000      28.56770000      25.97000000  F
C       -0.40938198       6.85604211      15.87760695      -3.78200000     -41.97850000     -63.29450000     -27.08430000     -16.15490000      75.46000000     -82.38170000      66.21420000      73.90330000      17.99000000  T
C        4.28414779      16.26513330       8.44819578      -3.78200000      41.97850000     -63.29450000      27.08430000     -16.15490000     -75.46000000     -82.38170000     -66.21420000      73.90330000      17.99000000  T
C        5.01566522      11.96212812       0.33959690      -3.78200000     -41.97850000     -63.29450000     -27.08430000     -16.15490000      75.46000000     -82.38170000      66.21420000      73.90330000      17.99000000  T
C        0.32213545       2.55304301       7.76900806      -3.78200000      41.97850000     -63.29450000      27.08430000     -16.15490000     -75.46000000     -82.38170000     -66.21420000      73.90330000      17.99000000  T
C        0.21751851      10.19015252      14.63013627     -10.21280000     -48.81120000     -75.62650000     -59.51310000      15.08170000      30.05370000     -83.03220000      32.10790000      96.69830000      33.86000000  T
C        3.65724729       0.78106740       9.69567254     -10.21280000      48.81120000     -75.62650000      59.51310000      15.08170000     -30.05370000     -83.03220000     -32.10790000      96.69830000      33.86000000  T
C        4.38876473       8.62802379       1.58706758     -10.21280000     -48.81120000     -75.62650000     -59.51310000      15.08170000      30.05370000     -83.03220000      32.10790000      96.69830000      33.86000000  T
C        0.94903594      18.03710891       6.52153131     -10.21280000      48.81120000     -75.62650000      59.51310000      15.08170000     -30.05370000     -83.03220000     -32.10790000      96.69830000      33.86000000  T
H        1.16363511      10.37586170      15.14485137      23.58650000      -0.27580000       5.25880000      -2.71620000      24.55990000      -0.88200000      -2.47070000      -3.74560000      22.16030000      23.44000000  F
H        2.71113069       0.96677658       9.18095136      23.58650000       0.27580000       5.25880000       2.71620000      24.55990000       0.88200000      -2.47070000       3.74560000      22.16030000      23.44000000  F
H        3.44264813       8.44230854       1.07235247      23.58650000      -0.27580000       5.25880000      -2.71620000      24.55990000      -0.88200000      -2.47070000      -3.74560000      22.16030000      23.44000000  F
H        1.89515254      17.85139973       7.03625249      23.58650000       0.27580000       5.25880000       2.71620000      24.55990000       0.88200000      -2.47070000       3.74560000      22.16030000      23.44000000  F
C        1.68967557       5.91494484       0.52806762     -17.52450000     -31.18760000     -76.51700000     -25.76460000      50.03610000      40.39990000     -87.35980000      38.31340000      74.65930000      35.72000000  T
C        3.64813117      15.32402996       7.58053734     -17.52450000      31.18760000     -76.51700000      25.76460000      50.03610000     -40.39990000     -87.35980000     -38.31340000      74.65930000      35.72000000  T
C        2.91660766      12.90323146      15.68913623     -17.52450000     -31.18760000     -76.51700000     -25.76460000      50.03610000      40.39990000     -87.35980000      38.31340000      74.65930000      35.72000000  T
C        0.95815814       3.49414634       8.63666651     -17.52450000      31.18760000     -76.51700000      25.76460000      50.03610000     -40.39990000     -87.35980000     -38.31340000      74.65930000      35.72000000  T
H        2.65813942       6.18224395       0.95118448      24.36410000       0.49780000       2.57590000      -0.61020000      26.68350000      -2.04610000      -4.28650000      -4.84340000      22.15810000      24.40000000  F
H        2.67966125      15.59132907       7.15741440      24.36410000      -0.49780000       2.57590000       0.61020000      26.68350000       2.04610000      -4.28650000       4.84340000      22.15810000      24.40000000  F
H        1.94814381      12.63593235      15.26601936      24.36410000       0.49780000       2.57590000      -0.61020000      26.68350000      -2.04610000      -4.28650000      -4.84340000      22.15810000      24.40000000  F
H        1.92662199       3.22684724       9.05978944      24.36410000      -0.49780000       2.57590000       0.61020000      26.68350000       2.04610000      -4.28650000       4.84340000      22.15810000      24.40000000  F
C        3.75316689       9.69782715      13.44658164     -16.85460000     -19.07050000     -84.51410000     -17.79160000      35.91150000      44.63480000     -77.63230000      39.85430000      93.41540000      37.49000000  T
C        0.12159284       0.28873596      10.87922717     -16.85460000      19.07050000     -84.51410000      17.79160000      35.91150000     -44.63480000     -77.63230000     -39.85430000      93.41540000      37.49000000  T
C        0.85311634       9.12034916       2.77062221     -16.85460000     -19.07050000     -84.51410000     -17.79160000      35.91150000      44.63480000     -77.63230000      39.85430000      93.41540000      37.49000000  T
C        4.48469039      18.52943428       5.33797668     -16.85460000      19.07050000     -84.51410000      17.79160000      35.91150000     -44.63480000     -77.63230000     -39.85430000      93.41540000      37.49000000  T
H        2.78456952       9.49364901      12.98932482      24.84520000       3.99980000       4.51450000       0.07800000      25.90610000       4.27960000       1.58010000       0.21320000      30.23040000      26.99000000  F
H        1.09019629       0.08455782      11.33648398      24.84520000      -3.99980000       4.51450000      -0.07800000      25.90610000      -4.27960000       1.58010000      -0.21320000      30.23040000      26.99000000  F
H        1.82171979       9.32452729       3.22787902      24.84520000       3.99980000       4.51450000       0.07800000      25.90610000       4.27960000       1.58010000       0.21320000      30.23040000      26.99000000  F
H        3.51608695      18.73361848       4.88071987      24.84520000      -3.99980000       4.51450000      -0.07800000      25.90610000      -4.27960000       1.58010000      -0.21320000      30.23040000      26.99000000  F
C        3.74304326       5.28973769      15.69623127     -20.02990000     -58.23900000     -63.36050000     -52.11470000      31.60360000      37.58900000     -61.23470000      35.86380000      94.02800000      35.20000000  T
C        0.13172254      14.69882281       8.62957754     -20.02990000      58.23900000     -63.36050000      52.11470000      31.60360000     -37.58900000     -61.23470000     -35.86380000      94.02800000      35.20000000  T
C        0.86323998      13.52843861       0.52097865     -20.02990000     -58.23900000     -63.36050000     -52.11470000      31.60360000      37.58900000     -61.23470000      35.86380000      94.02800000      35.20000000  T
C        4.47456069       4.11935350       7.58762631     -20.02990000      58.23900000     -63.36050000      52.11470000      31.60360000     -37.58900000     -61.23470000     -35.86380000      94.02800000      35.20000000  T
H        2.76452861       5.06520911      15.26776126      23.05290000      -3.69040000       4.01880000      -0.00850000      24.27440000      -1.51380000      -1.46740000      -3.42820000      23.62340000      23.65000000  F
H        1.11023719      14.47429423       9.05804148      23.05290000       3.69040000       4.01880000       0.00850000      24.27440000       1.51380000      -1.46740000       3.42820000      23.62340000      23.65000000  F
H        1.84175463      13.75296719       0.94944259      23.05290000      -3.69040000       4.01880000      -0.00850000      24.27440000      -1.51380000      -1.46740000      -3.42820000      23.62340000      23.65000000  F
H        3.49604604       4.34388207       7.15916237      23.05290000       3.69040000       4.01880000       0.00850000      24.27440000       1.51380000      -1.46740000       3.42820000      23.62340000      23.65000000  F
C        4.39040951      10.90448769      13.26805247      26.26700000      12.86750000     -82.13910000       7.79120000       9.37110000      78.09570000     -78.96480000      71.08730000      94.95720000      43.53000000  T
C       -0.51564371       1.49539651      11.05775634      26.26700000     -12.86750000     -82.13910000      -7.79120000       9.37110000     -78.09570000     -78.96480000     -71.08730000      94.95720000      43.53000000  T
C        0.21587372       7.91368861       2.94915138      26.26700000      12.86750000     -82.13910000       7.79120000       9.37110000      78.09570000     -78.96480000      71.08730000      94.95720000      43.53000000  T
C        5.12192695      17.32277373       5.15944751      26.26700000     -12.86750000     -82.13910000      -7.79120000       9.37110000     -78.09570000     -78.96480000     -71.08730000      94.95720000      43.53000000  T
H        3.91451987      11.69096286      12.68131269      24.21800000       2.70930000      -0.03240000       0.40970000      27.09800000       3.19990000       2.55750000      -3.03690000      25.38480000      25.57000000  F
H       -0.03975407       2.28187167      11.64449611      24.21800000      -2.70930000      -0.03240000      -0.40970000      27.09800000      -3.19990000       2.55750000       3.03690000      25.38480000      25.57000000  F
H        0.69176943       7.12721345       3.53589722      24.21800000       2.70930000      -0.03240000       0.40970000      27.09800000       3.19990000       2.55750000      -3.03690000      25.38480000      25.57000000  F
H        4.64603731      16.53629856       4.57270773      24.21800000      -2.70930000      -0.03240000      -0.40970000      27.09800000      -3.19990000       2.55750000       3.03690000      25.38480000      25.57000000  F
C       -0.41085683      11.14784938      13.86511616      25.25580000     -64.10790000     -52.68350000     -71.95490000     -27.77080000      45.50710000     -53.74380000      38.22710000     123.68720000      40.39000000  T
C        4.28562263       1.73876427      10.46069264      25.25580000      64.10790000     -52.68350000      71.95490000     -27.77080000     -45.50710000     -53.74380000     -38.22710000     123.68720000      40.39000000  T
C        5.01714007       7.67032692       2.35208768      25.25580000     -64.10790000     -52.68350000     -71.95490000     -27.77080000      45.50710000     -53.74380000      38.22710000     123.68720000      40.39000000  T
C        0.32066060      17.07941204       5.75651121      25.25580000      64.10790000     -52.68350000      71.95480000     -27.77080000     -45.50710000     -53.74380000     -38.22710000     123.68720000      40.39000000  T
H        0.05668749      12.12466463      13.73363033      23.77050000       1.58750000      -0.45030000      -2.14030000      25.42600000       0.86250000      -3.23190000      -3.70880000      24.73660000      24.64000000  F
H        3.81807831       2.71557951      10.59217848      23.77050000      -1.58750000      -0.45030000       2.14030000      25.42600000      -0.86250000      -3.23190000       3.70880000      24.73660000      24.64000000  F
H        4.54960182       6.69351168       2.48357352      23.77050000       1.58750000      -0.45030000      -2.14030000      25.42600000       0.86250000      -3.23190000      -3.70880000      24.73660000      24.64000000  F
H        0.78820492      16.10259680       5.62502537      23.77050000      -1.58750000      -0.45030000       2.14030000      25.42600000      -0.86250000      -3.23190000       3.70880000      24.73660000      24.64000000  F
C        1.06154301       4.73284685       0.85012417      16.26950000      -3.55180000     -78.12000000      -0.24060000      25.48020000      79.35140000     -84.50830000      82.69800000      71.49140000      37.75000000  T
C        4.27626373      14.14193197       7.25847472      16.26950000       3.55180000     -78.12000000       0.24060000      25.48020000     -79.35140000     -84.50830000     -82.69800000      71.49140000      37.75000000  T
C        3.54474023      14.08532945      15.36707968      16.26950000      -3.55180000     -78.12000000      -0.24060000      25.48020000      79.35140000     -84.50830000      82.69800000      71.49140000      37.75000000  T
C        0.33001950       4.67624433       8.95872913      16.26950000       3.55180000     -78.12000000       0.24060000      25.48020000     -79.35140000     -84.50830000     -82.69800000      71.49140000      37.75000000  T
H        1.54943170       4.02897519       1.52521510      25.05310000      -1.02650000       4.41180000      -0.65960000      25.97070000      -4.98050000       3.75500000      -5.43670000      27.06870000      26.03000000  F
H        3.78836897      13.43806031       6.58338986      25.05310000       1.02650000       4.41180000       0.65960000      25.97070000       4.98050000       3.75500000       5.43670000      27.06870000      26.03000000  F
H        3.05685154      14.78920112      14.69199482      25.05310000      -1.02650000       4.41180000      -0.65960000      25.97070000      -4.98050000       3.75500000      -5.43670000      27.06870000      26.03000000  F
H        0.81791426       5.38011600       9.63381398      25.05310000       1.02650000       4.41180000       0.65960000      25.97070000       4.98050000       3.75500000       5.43670000      27.06870000      26.03000000  F
C        5.84048638       4.41818274       0.33569432      17.04370000     -69.57960000     -41.34760000     -66.36120000      -5.38640000      65.13410000     -43.64490000      63.74240000     108.06850000      39.91000000  T
C       -0.50268571      13.82726786       7.77291064      17.04370000      69.57960000     -41.34760000      66.36120000      -5.38640000     -65.13410000     -43.64490000     -63.74240000     108.06850000      39.91000000  T
C       -1.23420314      14.39999356      15.88150953      17.04370000     -69.57960000     -41.34760000     -66.36120000      -5.38640000      65.13410000     -43.64490000      63.74240000     108.06850000      39.91000000  T
C        5.10896894       4.99090845       8.44429321      17.04370000      69.57960000     -41.34760000      66.36120000      -5.38640000     -65.13410000     -43.64490000     -63.74240000     108.06850000      39.91000000  T
H        5.35776875       3.48649899       0.64042902      22.72720000       0.79940000       1.16010000       0.19410000      23.22750000      -3.32690000       0.52050000       0.28600000      21.49970000      22.48000000  F
H       -0.01996201      12.89558411       7.46816987      22.72720000      -0.79940000       1.16010000      -0.19410000      23.22750000       3.32690000       0.52050000      -0.28600000      21.49970000      22.48000000  F
H       -0.75148551      15.33167731      15.57677483      22.72720000       0.79940000       1.16010000       0.19410000      23.22750000      -3.32690000       0.52050000       0.28600000      21.49970000      22.48000000  F
H        4.62624524       5.92259219       8.74903398      22.72720000      -0.79940000       1.16010000      -0.19410000      23.22750000       3.32690000       0.52050000      -0.28600000      21.49970000      22.48000000  F
N        4.04335949       1.79455349       2.27756245     -54.04240000     -34.62820000     145.11420000     -41.40800000    -285.45760000    -212.90560000     148.13670000    -208.37490000      63.84030000     -91.89000000  F
N        1.29444725      11.20363861       5.83104251     -54.04240000      34.62820000     145.11420000      41.40800000    -285.45760000     212.90560000     148.13670000     208.37490000      63.84030000     -91.89000000  F
N        0.56292982      17.02362281      13.93964140     -54.04240000     -34.62820000     145.11420000     -41.40800000    -285.45760000    -212.90560000     148.13670000    -208.37490000      63.84030000     -91.89000000  F
N        3.31183598       7.61453769      10.38616741     -54.04240000      34.62820000     145.11420000      41.40800000    -285.45760000     212.90560000     148.13670000     208.37490000      63.84030000     -91.89000000  F
C        3.52326696       0.57605777       2.02444736      -7.69930000     -33.30290000      68.54920000     -20.21530000     -28.60540000     -71.62550000      81.86850000     -55.00030000      83.36960000      15.69000000  T
C        1.81453371       9.98514895       6.08415760      -7.69930000      33.30290000      68.54920000      20.21530000     -28.60540000      71.62550000      81.86850000      55.00030000      83.36960000      15.69000000  T
C        1.08301627      18.24211247      14.19275649      -7.69930000     -33.30290000      68.54920000     -20.21530000     -28.60540000     -71.62550000      81.86850000     -55.00030000      83.36960000      15.69000000  T
C        2.79174953       8.83302735      10.13304624      -7.69930000      33.30290000      68.54920000      20.21530000     -28.60540000      71.62550000      81.86850000      55.00030000      83.36960000      15.69000000  T
C        3.33012286       2.63874186       3.05204463      -2.85970000     -24.02010000      69.71250000     -44.38390000     -31.32670000     -57.93090000      69.71330000     -64.05760000      83.26030000      16.36000000  T
C        2.00768388      12.04783305       5.05656033      -2.85970000      24.02010000      69.71250000      44.38390000     -31.32670000      57.93090000      69.71330000      64.05760000      83.26030000      16.36000000  T
C        1.27616038      16.17943444      13.16516528      -2.85970000     -24.02010000      69.71250000     -44.38390000     -31.32670000     -57.93090000      69.71330000     -64.05760000      83.26030000      16.36000000  T
C        2.59860542       6.77034325      11.16064352      -2.85970000      24.02010000      69.71250000      44.38390000     -31.32670000      57.93090000      69.71330000      64.05760000      83.26030000      16.36000000  T
C        2.03176696       2.30190651       3.60389186       1.71240000     -23.39430000      84.69050000     -33.16420000      10.93710000     -62.15260000      83.73010000     -60.61430000     109.93900000      40.86000000  T
C        3.30603978      11.71099163       4.50471310       1.71240000      23.39430000      84.69050000      33.16420000      10.93710000      62.15260000      83.73010000      60.61430000     109.93900000      40.86000000  T
C        2.57452234      16.51626979      12.61331198       1.71240000     -23.39430000      84.69050000     -33.16420000      10.93710000     -62.15260000      83.73010000     -60.61430000     109.93900000      40.86000000  T
C        1.30024346       7.10718468      11.71249075       1.71240000      23.39430000      84.69050000      33.16420000      10.93710000      62.15260000      83.73010000      60.61430000     109.93900000      40.86000000  T
C        1.49915949       1.04139892       3.31528336     -21.91930000     -36.69420000      71.47890000     -38.64050000      11.01280000     -42.64500000      73.40280000     -34.11660000      90.90770000      26.67000000  T
C        3.83864725      10.45048404       4.79332160     -21.91930000      36.69420000      71.47890000      38.64050000      11.01280000      42.64500000      73.40280000      34.11660000      90.90770000      26.67000000  T
C        3.10712375      17.77677739      12.90192049     -21.91930000     -36.69420000      71.47890000     -38.64050000      11.01280000     -42.64500000      73.40280000     -34.11660000      90.90770000      26.67000000  T
C        0.76764205       8.36768620      11.42388225     -21.91930000      36.69420000      71.47890000      38.64050000      11.01280000      42.64500000      73.40280000      34.11660000      90.90770000      26.67000000  T
H        0.52208327       0.75334272       3.71256311      24.30460000       1.73980000      -6.28100000       0.47890000      24.29070000      -2.87320000       0.02470000       4.24730000      27.56710000      25.39000000  F
H        4.81572347      10.16242784       4.39603578      24.30460000      -1.73980000      -6.28100000      -0.47890000      24.29070000       2.87320000       0.02470000      -4.24730000      27.56710000      25.39000000  F
H        4.08419997      18.06483358      12.50464073      24.30460000       1.73980000      -6.28100000       0.47890000      24.29070000      -2.87320000       0.02470000       4.24730000      27.56710000      25.39000000  F
H       -0.20944024       8.65574239      11.82116807      24.30460000      -1.73980000      -6.28100000      -0.47890000      24.29070000       2.87320000       0.02470000      -4.24730000      27.56710000      25.39000000  F
C        2.22897144       0.15228541       2.52174957       4.02070000     -50.94390000      71.12390000     -43.80600000      -0.95370000     -60.93190000      79.11050000     -49.67760000     117.79250000      40.29000000  T
C        3.10883530       9.56137053       5.58685539       4.02070000      50.94390000      71.12390000      43.80600000      -0.95370000      60.93190000      79.11050000      49.67760000     117.79250000      40.29000000  T
C        2.37731786      18.66589089      13.69545428       4.02070000     -50.94390000      71.12390000     -43.80600000      -0.95370000     -60.93190000      79.11050000     -49.67760000     117.79250000      40.29000000  T
C        1.49744794       9.25679971      10.63034846       4.02070000      50.94390000      71.12390000      43.80600000      -0.95370000      60.93190000      79.11050000      49.67760000     117.79250000      40.29000000  T
C        3.86489708       3.93610846       3.32570439     -10.92350000     -47.70680000      67.81260000     -56.88130000      20.40060000     -24.83100000      68.16390000     -29.36880000      97.09670000      35.52000000  T
C        1.47290966      13.34519965       4.78290057     -10.92350000      47.70680000      67.81260000      56.88130000      20.40060000      24.83100000      68.16390000      29.36880000      97.09670000      35.52000000  T
C        0.74138616      14.88206178      12.89149946     -10.92350000     -47.70680000      67.81260000     -56.88130000      20.40060000     -24.83100000      68.16390000     -29.36880000      97.09670000      35.52000000  T
C        3.13337964       5.47297666      11.43430328     -10.92350000      47.70680000      67.81260000      56.88130000      20.40060000      24.83100000      68.16390000      29.36880000      97.09670000      35.52000000  T
H        4.82527052       4.19344780       2.88012495      23.48820000       2.44530000      -3.68620000      -2.84860000      22.96320000       0.77220000       0.17400000      -1.33680000      22.99870000      23.15000000  F
H        0.51253015      13.60253899       5.22847393      23.48820000      -2.44530000      -3.68620000       2.84860000      22.96320000      -0.77220000       0.17400000       1.33680000      22.99870000      23.15000000  F
H       -0.21898729      14.62472850      13.33707889      23.48820000       2.44530000      -3.68620000      -2.84860000      22.96320000       0.77220000       0.17400000      -1.33680000      22.99870000      23.15000000  F
H        4.09375309       5.21563731      10.98872991      23.48820000      -2.44530000      -3.68620000       2.84860000      22.96320000      -0.77220000       0.17400000       1.33680000      22.99870000      23.15000000  F
C        4.27024296      18.48475191       1.21438073     -20.19360000     -31.78330000      77.67030000     -24.76230000      39.19320000     -39.39040000      85.11810000     -28.35060000      87.99530000      35.66000000  T
C        1.06756378       9.07566679       6.89422423     -20.19360000      31.78330000      77.67030000      24.76230000      39.19320000      39.39040000      85.11810000      28.35060000      87.99530000      35.66000000  T